<?xml version="1.0" encoding="UTF-8"?>

<!-- generated on 2023-05-05 16:15:26 by Eclipse SUMO sumo Version 1.14.1
<configuration xmlns:xsi="http://www.w3.org/2001/XMLSchema-instance" xsi:noNamespaceSchemaLocation="http://sumo.dlr.de/xsd/sumoConfiguration.xsd">

    <input>
        <net-file value="test2.net.xml"/>
        <route-files value="test2.rou.xml"/>
        <additional-files value="test2.add.xml"/>
    </input>

    <output>
        <statistic-output value="statistic_DQN.xml"/>
    </output>

    <processing>
        <waiting-time-memory value="3600"/>
    </processing>

    <report>
        <verbose value="true"/>
        <no-step-log value="true"/>
    </report>

    <traci_server>
        <remote-port value="54768"/>
    </traci_server>

    <gui_only>
        <start value="true"/>
    </gui_only>

</configuration>
-->

<detector xmlns:xsi="http://www.w3.org/2001/XMLSchema-instance" xsi:noNamespaceSchemaLocation="http://sumo.dlr.de/xsd/det_e1_file.xsd">
</detector>
